version 3
run General-0-20230620-00:32:03-7214
attr configname General
attr datetime 20230620-00:32:03
attr datetimef 20230620-003203
attr experiment General
attr inifile omnetpp.ini
attr iterationvars ""
attr iterationvarsd ""
attr iterationvarsf ""
attr measurement ""
attr network Network
attr processid 7214
attr repetition 0
attr replication #0
attr resultdir results
attr runnumber 0
attr seedset 0
config network Network
config sim-time-limit 200s
config Network.nodeTx.gen.generationInterval exponential(0.1)
config Network.nodeTx.gen.packetByteSize 12500
config Network.queue1.serviceTime 0
config Network.queue2.serviceTime 0
config Network.queue1.bufferSize 100
config Network.queue2.bufferSize 200000
config Network.nodeRx.traRx.bufferSize 100
config Network.nodeTx.traTx.bufferSize 20000000

vector 0 Network.nodeTx.gen PacketsSends ETV
vector 1 Network.nodeTx.traTx "Buffer Size" ETV
vector 2 Network.queue1 "Buffer Size" ETV
vector 3 Network.nodeRx.traRx "Buffer Size" ETV
vector 4 Network.nodeRx.sink Delay ETV
vector 5 Network.nodeRx.sink packetReceived ETV
vector 6 Network.queue2 "Buffer Size" ETV
0	1	0.079587450457	1
0	4	0.169443489305	1
0	14	0.29503656511	1
0	24	0.480996986317	1
0	29	0.573319299464	1
0	40	0.768473833052	1
0	45	0.84719394705	1
0	56	1.03509035247	1
0	63	1.090195201137	1
0	68	1.187895843776	1
0	76	1.291711773842	1
0	82	1.340224590214	1
0	84	1.397776509902	1
0	86	1.433092423816	1
0	102	1.65544486602	1
0	104	1.661283332929	1
0	122	1.992774560922	1
0	125	2.024610175006	1
0	129	2.072970385501	1
0	136	2.137915020326	1
0	148	2.294804632088	1
0	154	2.46202575212	1
0	162	2.537293163451	1
0	168	2.602681420173	1
0	172	2.686624705463	1
0	178	2.736511906365	1
0	194	2.99633731495	1
0	204	3.177174241377	1
0	207	3.184542776924	1
0	211	3.225700576548	1
0	213	3.23481667916	1
0	220	3.339277929991	1
0	222	3.341320488831	1
0	228	3.387245302557	1
0	236	3.565994068901	1
0	258	3.881011061769	1
0	264	4.031589487633	1
0	266	4.046712572999	1
0	278	4.250743998793	1
0	290	4.454833220384	1
0	304	4.839355407298	1
0	309	4.903526324566	1
0	318	5.064050280272	1
0	328	5.225450487761	1
0	335	5.287343433724	1
0	340	5.360839875843	1
0	348	5.512493473242	1
0	358	5.626087367413	1
0	361	5.638674808357	1
0	370	5.766197578579	1
0	376	5.868340766014	1
0	384	5.955572885518	1
0	386	5.971045853568	1
0	392	6.048129319415	1
0	410	6.337571367214	1
0	418	6.479707835223	1
0	425	6.553490564399	1
0	427	6.564685180462	1
0	432	6.618241752485	1
0	440	6.682411222688	1
0	442	6.713139257903	1
0	444	6.733759586106	1
0	456	6.882585068681	1
0	462	7.016114087143	1
0	464	7.077022329461	1
0	472	7.101427178535	1
0	478	7.185460649096	1
0	480	7.199988451825	1
0	482	7.201885308745	1
0	484	7.241062389813	1
0	492	7.33720048372	1
0	494	7.353414132665	1
0	500	7.448113800382	1
0	502	7.473257993589	1
0	510	7.569212791326	1
0	516	7.618068496257	1
0	534	7.905859998385	1
0	546	8.138751335806	1
0	552	8.253265231276	1
0	560	8.313039838958	1
0	562	8.357591688463	1
0	568	8.452541146813	1
0	576	8.509994387487	1
0	588	8.742629493656	1
0	594	8.862240273602	1
0	596	8.87269639618	1
0	598	8.878907925227	1
0	620	9.228929293672	1
0	628	9.338820540427	1
0	634	9.444703953576	1
0	642	9.555763698145	1
0	644	9.574506304747	1
0	650	9.598126975355	1
0	652	9.642467378217	1
0	654	9.65627024706	1
0	666	9.795174516039	1
0	668	9.833070712467	1
0	676	9.926676868444	1
0	678	9.971887074466	1
0	684	10.011198330196	1
0	692	10.095641109549	1
0	694	10.09955942519	1
0	696	10.157291856271	1
0	702	10.257878956788	1
0	730	10.703328641406	1
0	746	11.022623305611	1
0	748	11.033386816427	1
0	756	11.139169457762	1
0	758	11.16259960964	1
0	764	11.263401534182	1
0	772	11.280992888725	1
0	798	11.817002923749	1
0	806	11.922877195258	1
0	812	12.010068780621	1
0	814	12.039276833948	1
0	822	12.092783301656	1
0	824	12.155577459755	1
0	830	12.219955559915	1
0	832	12.247983260763	1
0	840	12.34566966817	1
0	842	12.362982413785	1
0	848	12.404232536777	1
0	850	12.415928077756	1
0	858	12.528244907909	1
0	864	12.635052127624	1
0	866	12.673207711961	1
0	874	12.688078938886	1
0	880	12.838742472213	1
0	882	12.860630531864	1
0	900	13.159349521049	1
0	906	13.205350916823	1
0	914	13.313977854911	1
0	926	13.486011020683	1
0	928	13.487377478526	1
0	930	13.497591966678	1
0	936	13.595102160094	1
0	944	13.777084052022	1
0	956	13.889065488597	1
0	958	13.899168966128	1
0	974	14.256527803362	1
0	999	14.63143094932	1
0	1008	14.841963079399	1
0	1014	14.905196739039	1
0	1016	14.976455098372	1
0	1032	15.352647826822	1
0	1034	15.358380519464	1
0	1039	15.451228369154	1
0	1045	15.511223057818	1
0	1050	15.645647585033	1
0	1052	15.647666597848	1
0	1054	15.651664227754	1
0	1060	15.709952066641	1
0	1062	15.743193090737	1
0	1078	16.132350103022	1
0	1080	16.145155779553	1
0	1085	16.189697725745	1
0	1087	16.224815334683	1
0	1093	16.290379963119	1
0	1095	16.303018826762	1
0	1100	16.419706179417	1
0	1102	16.457976274303	1
0	1111	16.670399994003	1
0	1117	16.723888431579	1
0	1126	16.974279609888	1
0	1131	16.980909350036	1
0	1133	17.005348894844	1
0	1139	17.123267847551	1
0	1144	17.206552199158	1
0	1150	17.290161952355	1
0	1159	17.490486004606	1
0	1161	17.521327488616	1
0	1166	17.592452282338	1
0	1168	17.666528177383	1
0	1181	17.915086413081	1
0	1183	17.924951443923	1
0	1192	18.178981894719	1
0	1197	18.264771458826	1
0	1199	18.27344850706	1
0	1212	18.538374099928	1
0	1214	18.570908141481	1
0	1219	18.609264162891	1
0	1221	18.610204237957	1
0	1227	18.720288828966	1
0	1241	18.905021594066	1
0	1243	18.919154665422	1
0	1248	19.02333273084	1
0	1254	19.149326111851	1
0	1261	19.333454359	1
0	1263	19.367619775703	1
0	1267	19.398371548079	1
0	1269	19.418606591936	1
0	1271	19.469326604262	1
0	1277	19.557639508458	1
0	1280	19.638119248438	1
0	1282	19.640150494318	1
0	1284	19.658175719516	1
0	1292	19.834749826757	1
0	1297	19.880922916361	1
0	1299	19.88139357041	1
0	1301	19.897227721033	1
0	1305	20.01049113523	1
0	1311	20.094799438445	1
0	1313	20.12627160453	1
0	1316	20.247922469874	1
0	1324	20.380798257249	1
0	1326	20.414832931073	1
0	1337	20.742347248844	1
0	1340	20.799137664192	1
0	1342	20.827739761443	1
0	1348	20.968842202372	1
0	1352	21.054681499155	1
0	1357	21.105115879814	1
0	1361	21.194774966893	1
0	1368	21.421148324479	1
0	1374	21.506070405635	1
0	1378	21.607936278637	1
0	1380	21.633178277926	1
0	1387	21.855328967773	1
0	1398	22.160557133461	1
0	1402	22.274517929814	1
0	1407	22.333780332559	1
0	1411	22.393418271992	1
0	1418	22.580764259978	1
0	1429	22.965064918302	1
0	1437	23.085288775027	1
0	1439	23.097641439763	1
0	1441	23.13294345309	1
0	1444	23.278625308946	1
0	1452	23.446717529401	1
0	1457	23.499789779063	1
0	1459	23.550291653838	1
0	1463	23.662819855522	1
0	1470	23.875769795129	1
0	1476	23.904510842736	1
0	1480	23.991564425369	1
0	1482	24.02913830961	1
0	1489	24.242621354608	1
0	1500	24.579058399913	1
0	1507	24.696996693277	1
0	1511	24.785782834321	1
0	1517	24.914973761201	1
0	1520	25.022757249615	1
0	1526	25.092337195705	1
0	1528	25.168523972835	1
0	1541	25.481070808601	1
0	1543	25.507276532769	1
0	1546	25.610556233834	1
0	1548	25.66078731366	1
0	1554	25.715926912673	1
0	1558	25.812372269222	1
0	1563	25.905612557263	1
0	1565	25.970023028095	1
0	1567	25.97196100623	1
0	1571	26.035473777793	1
0	1573	26.07136649938	1
0	1580	26.197270851106	1
0	1586	26.305202870972	1
0	1588	26.33916934423	1
0	1590	26.3734293067	1
0	1594	26.421792875359	1
0	1604	26.518030380936	1
0	1608	26.65632830159	1
0	1614	26.712324408597	1
0	1621	26.923069169092	1
0	1623	26.937626566937	1
0	1625	26.948481276786	1
0	1629	26.983903690011	1
0	1631	26.993595965469	1
0	1633	27.077984812728	1
0	1637	27.121687614105	1
0	1640	27.211060521936	1
0	1646	27.291315720512	1
0	1648	27.376723694076	1
0	1652	27.380144035912	1
0	1656	27.48604497445	1
0	1665	27.833298522378	1
0	1669	27.938883483244	1
0	1671	27.977596492459	1
0	1674	28.034057542571	1
0	1676	28.059065692069	1
0	1686	28.285929091338	1
0	1688	28.301158453863	1
0	1690	28.346975742259	1
0	1692	28.357207803744	1
0	1695	28.414453958887	1
0	1706	28.828234934938	1
0	1714	29.050726400661	1
0	1718	29.080882991983	1
0	1721	29.244972749776	1
0	1727	29.321980435731	1
0	1731	29.443682385265	1
0	1735	29.503089735097	1
0	1737	29.51365099946	1
0	1739	29.52413918302	1
0	1746	29.776067396028	1
0	1750	29.819501961622	1
0	1754	29.944762714113	1
0	1757	30.008108975885	1
0	1776	30.684648027879	1
0	1779	30.868621306387	1
0	1785	30.884808315058	1
0	1791	31.119826044033	1
0	1798	31.322416925743	1
0	1800	31.326245217031	1
0	1802	31.343977774546	1
0	1806	31.414969567268	1
0	1810	31.51056620966	1
0	1812	31.528820069848	1
0	1814	31.542038440809	1
0	1821	31.69302078637	1
0	1827	31.881413675029	1
0	1834	32.081612324582	1
0	1838	32.246284234715	1
0	1842	32.299284522529	1
0	1845	32.383472618702	1
0	1847	32.398551719721	1
0	1849	32.45083872273	1
0	1851	32.454217401285	1
0	1853	32.461384939716	1
0	1864	32.866369623596	1
0	1872	32.985913480224	1
0	1874	33.032640736865	1
0	1878	33.09307064405	1
0	1880	33.147556356864	1
0	1883	33.275589777245	1
0	1889	33.280781032463	1
0	1895	33.482058306084	1
0	1897	33.527549490563	1
0	1908	33.898545549753	1
0	1910	33.900222326352	1
0	1917	34.093880050101	1
0	1919	34.120112981018	1
0	1921	34.12129130421	1
0	1925	34.266070712409	1
0	1929	34.310695994461	1
0	1938	34.599157169671	1
0	1942	34.730087006073	1
0	1945	34.868716141275	1
0	1951	34.887545638797	1
0	1953	34.929006893063	1
0	1957	35.002620003062	1
0	1959	35.069866054745	1
0	1961	35.075453060034	1
0	1965	35.116850952301	1
0	1967	35.139164873111	1
0	1969	35.158947823857	1
0	1971	35.160817370899	1
0	1973	35.179569266019	1
0	1980	35.33741053823	1
0	1984	35.399670272628	1
0	1986	35.425020843142	1
0	1991	35.632623949186	1
0	1993	35.674989659322	1
0	2003	35.963444088163	1
0	2012	36.226665974418	1
0	2016	36.32037984619	1
0	2019	36.442259526524	1
0	2025	36.533055929256	1
0	2027	36.536291609721	1
0	2038	36.689374732348	1
0	2040	36.707370466503	1
0	2042	36.776690443457	1
0	2045	36.873838659266	1
0	2047	36.879006949846	1
0	2053	36.965099313514	1
0	2060	37.085196404168	1
0	2062	37.112363211202	1
0	2077	37.600276500001	1
0	2084	37.872411325592	1
0	2090	37.903508106089	1
0	2093	37.998691076843	1
0	2099	38.112350726369	1
0	2103	38.189058691826	1
0	2110	38.388775888575	1
0	2112	38.477913746266	1
0	2119	38.616881452644	1
0	2125	38.74785998978	1
0	2138	39.081653423165	1
0	2140	39.119042072755	1
0	2143	39.199840078095	1
0	2145	39.250626590364	1
0	2147	39.274501877649	1
0	2153	39.298054334991	1
0	2155	39.323214196302	1
0	2157	39.34381740115	1
0	2159	39.36850332803	1
0	2168	39.65741088722	1
0	2174	39.741708764761	1
0	2177	39.876243508084	1
0	2183	39.936411406736	1
0	2187	40.0038358637	1
0	2198	40.355283731754	1
0	2201	40.381085008148	1
0	2207	40.495198798434	1
0	2209	40.524549563626	1
0	2211	40.533464992626	1
0	2213	40.539443088918	1
0	2215	40.54525032513	1
0	2219	40.602240081661	1
0	2221	40.66915145403	1
0	2226	40.706518433469	1
0	2234	40.919385442922	1
0	2237	41.038571253287	1
0	2250	41.41324071467	1
0	2252	41.460682343703	1
0	2258	41.55682630086	1
0	2260	41.576623074393	1
0	2263	41.654820646481	1
0	2265	41.657319481812	1
0	2273	41.8501554955	1
0	2275	41.857117262607	1
0	2282	41.993310435038	1
0	2288	42.107064285592	1
0	2290	42.172187358784	1
0	2293	42.232645480618	1
0	2299	42.345681035209	1
0	2303	42.422593015319	1
0	2308	42.51599904858	1
0	2316	42.742983050158	1
0	2319	42.868403377167	1
0	2336	43.332368629804	1
0	2339	43.395761631743	1
0	2341	43.420210733947	1
0	2347	43.481094025321	1
0	2351	43.589884468682	1
0	2358	43.826776285766	1
0	2360	43.857336775947	1
0	2362	43.872096379236	1
0	2364	43.874183101097	1
0	2370	43.900218242252	1
0	2373	44.042256587811	1
0	2381	44.255612916558	1
0	2386	44.294181685963	1
0	2394	44.528966062106	1
0	2396	44.577329900855	1
0	2408	44.681114908404	1
0	2410	44.769865101252	1
0	2414	44.809122404071	1
0	2421	44.986936737754	1
0	2423	45.060273505071	1
0	2430	45.159423934361	1
0	2432	45.159429469551	1
0	2441	45.365511593639	1
0	2445	45.402887923021	1
0	2447	45.434845388508	1
0	2454	45.490262471413	1
0	2458	45.650234415597	1
0	2467	45.866810783684	1
0	2474	45.887345560558	1
0	2478	46.001251325625	1
0	2492	46.306569792584	1
0	2494	46.367474253855	1
0	2503	46.483785582198	1
0	2505	46.549835890173	1
0	2507	46.57410773954	1
0	2516	46.729574033321	1
0	2527	47.024022061063	1
0	2529	47.050086074001	1
0	2538	47.181336873298	1
0	2547	47.393611538692	1
0	2549	47.422906684541	1
0	2551	47.460549619693	1
0	2558	47.484541971637	1
0	2569	47.800251525779	1
0	2571	47.873274292303	1
0	2578	47.937093152862	1
0	2580	47.939692927381	1
0	2584	48.064028005176	1
0	2591	48.087280507014	1
0	2593	48.103967971137	1
0	2595	48.159251808202	1
0	2604	48.290349045018	1
0	2606	48.337216692616	1
0	2610	48.441137256274	1
0	2617	48.50342018725	1
0	2619	48.527612151727	1
0	2621	48.560133753525	1
0	2625	48.580769552885	1
0	2627	48.669148118488	1
0	2636	48.833955735804	1
0	2645	49.033359655932	1
0	2652	49.170827651312	1
0	2656	49.183330910304	1
0	2663	49.295676960259	1
0	2665	49.368529344532	1
0	2669	49.400949255881	1
0	2671	49.415113459361	1
0	2673	49.434339603445	1
0	2680	49.560520870794	1
0	2689	49.682420805312	1
0	2691	49.732848798637	1
0	2695	49.795052490545	1
0	2697	49.87839031461	1
0	2706	50.061916654904	1
0	2718	50.082162531274	1
0	2720	50.105086963795	1
0	2722	50.120734540833	1
0	2724	50.138761970791	1
0	2728	50.205716029877	1
0	2730	50.219050092204	1
0	2732	50.262995631253	1
0	2742	50.391038066651	1
0	2754	50.673101661493	1
0	2756	50.676194290649	1
0	2768	50.821149768292	1
0	2776	50.958584069734	1
0	2788	51.096680379301	1
0	2790	51.106397147138	1
0	2802	51.340446343204	1
0	2804	51.364966152468	1
0	2806	51.373677010794	1
0	2818	51.512008657409	1
0	2824	51.592347833676	1
0	2832	51.723910459506	1
0	2838	51.811731967378	1
0	2840	51.816400741742	1
0	2858	52.143250381824	1
0	2860	52.16671596675	1
0	2866	52.201267925121	1
0	2868	52.235083396605	1
0	2870	52.262636190309	1
0	2878	52.375728038228	1
0	2884	52.386296755638	1
0	2886	52.392808042117	1
0	2888	52.394464651559	1
0	2890	52.475578753782	1
0	2908	52.740834605334	1
0	2910	52.741762907772	1
0	2916	52.852603883193	1
0	2928	53.031602843641	1
0	2940	53.185385715089	1
0	2962	53.600982824645	1
0	2964	53.634073812763	1
0	2972	53.755642860099	1
0	2978	53.843930914595	1
0	2980	53.863975134104	1
0	2982	53.870584335173	1
0	2990	53.942408983184	1
0	2996	54.008889758139	1
0	3004	54.095746331286	1
0	3020	54.475148709595	1
0	3032	54.630049877511	1
0	3044	54.839205534773	1
0	3052	54.9324667203	1
0	3054	54.973739706973	1
0	3060	54.998381289194	1
0	3078	55.324273386912	1
0	3084	55.385001315774	1
0	3086	55.411359027058	1
0	3098	55.622447904496	1
0	3116	55.920667972043	1
0	3122	55.988448172249	1
0	3134	56.272112191587	1
0	3146	56.397835891144	1
0	3154	56.558381767451	1
0	3160	56.624966016115	1
0	3168	56.724512380452	1
0	3174	56.847800426755	1
0	3186	57.055176573065	1
0	3194	57.12412002685	1
0	3196	57.158795357229	1
0	3208	57.344938521527	1
0	3220	57.533948691337	1
0	3222	57.555558312996	1
0	3228	57.651759505655	1
0	3240	57.80018375392	1
0	3242	57.801516278403	1
0	3260	58.167482011479	1
0	3266	58.210135592683	1
0	3278	58.408410483143	1
0	3280	58.424443892592	1
0	3288	58.576050785575	1
0	3310	58.976845751062	1
0	3336	59.397031693687	1
0	3338	59.462111427923	1
0	3350	59.602178997619	1
0	3352	59.670973345465	1
0	3354	59.671378977597	1
0	3362	59.773397686392	1
0	3368	59.804797476198	1
0	3370	59.850776607976	1
0	3378	59.903623330806	1
0	3380	59.918345834537	1
0	3382	59.974246601536	1
0	3394	60.14690993951	1
0	3400	60.182269597036	1
0	3402	60.203322925856	1
0	3404	60.254594390119	1
0	3412	60.326198921918	1
0	3414	60.339056945646	1
0	3416	60.364458083481	1
0	3443	60.759221410237	1
0	3445	60.769518246609	1
0	3451	60.821626128717	1
0	3461	61.019815162828	1
0	3467	61.104028793112	1
0	3479	61.46492289361	1
0	3485	61.507022223415	1
0	3497	61.831018520105	1
0	3506	61.98654795614	1
0	3515	62.223586714201	1
0	3517	62.276582872128	1
0	3526	62.425325847562	1
0	3528	62.469840781503	1
0	3534	62.510359069737	1
0	3536	62.561358153122	1
0	3538	62.569816102298	1
0	3543	62.605745492811	1
0	3545	62.658042258177	1
0	3554	62.807305474596	1
0	3556	62.83373252101	1
0	3569	63.094389701242	1
0	3571	63.108602252381	1
0	3573	63.147952493493	1
0	3575	63.153443230748	1
0	3587	63.458929208649	1
0	3596	63.588243994529	1
0	3598	63.589648653653	1
0	3600	63.590797978674	1
0	3602	63.667040347095	1
0	3611	63.814260762894	1
0	3613	63.850584984784	1
0	3615	63.86647830275	1
0	3628	64.080916849201	1
0	3630	64.089203076493	1
0	3632	64.118054347528	1
0	3634	64.127441802256	1
0	3639	64.240579679016	1
0	3645	64.352068421207	1
0	3654	64.518364999274	1
0	3656	64.546517401521	1
0	3661	64.603106855684	1
0	3663	64.657672627161	1
0	3672	64.797159536287	1
0	3674	64.878661369377	1
0	3683	65.055623351698	1
0	3692	65.252629108257	1
0	3698	65.300276966517	1
0	3703	65.430121530077	1
0	3705	65.440274938471	1
0	3707	65.471790941343	1
0	3718	65.501381128668	1
0	3720	65.51547791711	1
0	3725	65.605110837612	1
0	3727	65.610807490859	1
0	3729	65.675524961263	1
0	3735	65.711421093101	1
0	3737	65.7783513803	1
0	3741	65.808748536223	1
0	3743	65.870092445182	1
0	3748	65.930998890714	1
0	3752	66.005357209892	1
0	3758	66.120331348667	1
0	3760	66.178673725771	1
0	3767	66.297623350904	1
0	3774	66.489107576668	1
0	3776	66.522447910506	1
0	3778	66.57926495888	1
0	3782	66.627056757631	1
0	3789	66.802428222133	1
0	3791	66.822413775925	1
0	3797	66.893614582487	1
0	3801	67.04898913269	1
0	3803	67.058022857098	1
0	3805	67.063875646993	1
0	3810	67.171768337843	1
0	3818	67.291169674903	1
0	3820	67.314311772099	1
0	3823	67.465133295262	1
0	3831	67.653045138683	1
0	3838	67.803286418054	1
0	3844	67.917655480113	1
0	3846	67.947687988142	1
0	3848	67.967334176732	1
0	3851	68.014144822055	1
0	3853	68.021386733066	1
0	3859	68.109962797669	1
0	3861	68.110936338603	1
0	3863	68.142794723391	1
0	3870	68.365403122335	1
0	3874	68.411742125089	1
0	3876	68.426067427227	1
0	3878	68.448014243316	1
0	3885	68.599060403438	1
0	3887	68.660652331816	1
0	3898	68.919897192694	1
0	3900	68.924460997644	1
0	3904	69.050050346078	1
0	3911	69.210892130987	1
0	3913	69.278387228352	1
0	3919	69.286395113946	1
0	3921	69.349788326595	1
0	3925	69.422942860508	1
0	3932	69.637252830551	1
0	3934	69.673897959734	1
0	3940	69.740921147392	1
0	3943	69.827087896572	1
0	3949	69.880628331681	1
0	3958	70.201109214642	1
0	3960	70.220238819232	1
0	3966	70.323963328642	1
0	3969	70.388454177759	1
0	3971	70.392054460734	1
0	3977	70.545139302628	1
0	3981	70.60142182281	1
0	3986	70.682711658929	1
0	3988	70.754050087209	1
0	3990	70.771469603246	1
0	3994	70.848294937433	1
0	3996	70.863823495983	1
0	4002	70.978203033895	1
0	4009	71.083031944391	1
0	4011	71.11554903144	1
0	4015	71.19303326939	1
0	4017	71.206828592583	1
0	4019	71.246234349778	1
0	4024	71.296103583065	1
0	4026	71.312004784745	1
0	4035	71.6252877337	1
0	4037	71.642707605358	1
0	4039	71.663426123583	1
0	4041	71.677284805725	1
0	4052	71.911608798734	1
0	4056	71.998102609677	1
0	4058	72.076586311636	1
0	4064	72.086266058867	1
0	4066	72.147314343367	1
0	4075	72.388715986418	1
0	4082	72.60245815546	1
0	4084	72.611119854905	1
0	4086	72.672480275879	1
0	4093	72.833613475791	1
0	4099	72.962409673299	1
0	4111	73.172073300651	1
0	4115	73.222993549338	1
0	4117	73.232805501601	1
0	4124	73.467192465681	1
0	4130	73.522758356997	1
0	4134	73.639884726492	1
0	4138	73.703982081018	1
0	4141	73.824253459401	1
0	4147	73.911050457603	1
0	4149	73.950758552605	1
0	4153	74.076722669667	1
0	4158	74.218101002621	1
0	4160	74.220845212664	1
0	4166	74.321922128974	1
0	4170	74.453374338782	1
0	4174	74.480820690982	1
0	4177	74.62647671214	1
0	4179	74.643976216962	1
0	4181	74.644957660602	1
0	4189	74.804113272881	1
0	4191	74.840971566842	1
0	4200	75.160797064519	1
0	4204	75.18730637466	1
0	4206	75.248580919146	1
0	4210	75.318583482758	1
0	4213	75.407983623026	1
0	4223	75.715291145305	1
0	4230	75.91028883649	1
0	4234	75.991890692886	1
0	4236	76.052996449015	1
0	4238	76.063251638315	1
0	4247	76.366645895555	1
0	4251	76.463846984661	1
0	4255	76.549590494922	1
0	4262	76.748384440406	1
0	4268	76.920291371585	1
0	4270	76.937445234322	1
0	4277	77.176963213261	1
0	4290	77.665313112296	1
0	4295	77.834336607772	1
0	4297	77.843219846037	1
0	4299	77.860585502358	1
0	4301	77.870507655006	1
0	4307	77.969635605582	1
0	4311	78.07004072297	1
0	4315	78.120862668375	1
0	4324	78.419040634108	1
0	4326	78.425517203387	1
0	4335	78.701577648955	1
0	4337	78.756748010214	1
0	4341	78.816056169947	1
0	4343	78.845989008189	1
0	4347	78.976072750935	1
0	4354	79.165145666378	1
0	4360	79.300717517763	1
0	4362	79.304104703287	1
0	4364	79.340775218666	1
0	4373	79.660151405934	1
0	4375	79.672908763314	1
0	4379	79.716816461873	1
0	4381	79.775493342541	1
0	4384	79.819608823614	1
0	4386	79.869329752248	1
0	4388	79.870976080646	1
0	4394	79.946872558071	1
0	4396	79.967357784786	1
0	4402	80.154021831804	1
0	4405	80.205314530987	1
0	4411	80.282160788726	1
0	4417	80.547079614949	1
0	4420	80.661107502641	1
0	4422	80.671600777374	1
0	4428	80.76555097596	1
0	4435	81.056142936326	1
0	4437	81.06651001999	1
0	4445	81.270139438717	1
0	4449	81.27979356662	1
0	4451	81.340336944784	1
0	4453	81.346096236466	1
0	4456	81.385652796506	1
0	4458	81.394703543521	1
0	4460	81.421197037285	1
0	4462	81.448269476359	1
0	4468	81.543581730186	1
0	4474	81.726535945772	1
0	4476	81.729899337864	1
0	4479	81.803791339858	1
0	4481	81.805364252235	1
0	4483	81.877328742004	1
0	4489	81.933329579337	1
0	4493	82.03826379593	1
0	4495	82.045313990766	1
0	4499	82.123969899955	1
0	4501	82.152997241467	1
0	4503	82.156297639973	1
0	4506	82.181292721638	1
0	4508	82.268078908627	1
0	4514	82.2972735158	1
0	4518	82.444715738278	1
0	4520	82.458763309974	1
0	4524	82.505960118751	1
0	4526	82.507171043257	1
0	4528	82.574706630274	1
0	4531	82.586978131006	1
0	4542	82.986734478678	1
0	4548	83.083093748307	1
0	4550	83.111151340925	1
0	4562	83.477107552771	1
0	4568	83.523999685498	1
0	4582	83.988027685093	1
0	4584	83.992701175267	1
0	4586	84.045304254843	1
0	4592	84.082420426923	1
0	4594	84.100208102709	1
0	4598	84.278301570198	1
0	4605	84.380123328079	1
0	4611	84.544641670786	1
0	4614	84.612036015208	1
0	4620	84.714207849949	1
0	4633	85.168990235135	1
0	4636	85.214893027884	1
0	4638	85.221646443572	1
0	4640	85.259152637884	1
0	4648	85.412046524955	1
0	4653	85.573912631597	1
0	4657	85.607936353558	1
0	4659	85.615241519273	1
0	4661	85.642872038566	1
0	4667	85.757938297859	1
0	4670	85.866558628975	1
0	4676	85.914479898423	1
0	4678	85.942724569619	1
0	4682	86.043217900525	1
0	4687	86.152837156626	1
0	4696	86.414401249868	1
0	4702	86.487239007171	1
0	4706	86.679612864238	1
0	4711	86.734793076402	1
0	4715	86.803644465206	1
0	4721	86.884542434719	1
0	4723	86.940375113645	1
0	4725	86.974209725515	1
0	4732	87.147121689283	1
0	4736	87.269734910506	1
0	4743	87.403762506704	1
0	4745	87.457352386238	1
0	4751	87.516618128032	1
0	4753	87.561332118292	1
0	4765	87.908396626346	1
0	4773	88.084805365565	1
0	4775	88.129929245414	1
0	4784	88.388911859964	1
0	4786	88.439584181354	1
0	4788	88.44429410846	1
0	4793	88.578496082578	1
0	4797	88.604974309912	1
0	4799	88.664591499052	1
0	4805	88.70744225947	1
0	4814	88.984356707754	1
0	4819	89.15307853663	1
0	4823	89.182815889421	1
0	4836	89.606117469054	1
0	4838	89.654205291484	1
0	4850	90.001490862074	1
0	4856	90.120939856425	1
0	4863	90.356273333232	1
0	4872	90.583644049901	1
0	4874	90.618820788444	1
0	4876	90.631724638762	1
0	4893	91.114696663559	1
0	4895	91.142343935213	1
0	4897	91.171034844751	1
0	4900	91.196946070339	1
0	4902	91.208140524453	1
0	4904	91.275378814657	1
0	4920	91.576875641876	1
0	4931	91.798997060196	1
0	4933	91.825578715098	1
0	4935	91.869912154698	1
0	4944	91.986955727699	1
0	4946	92.035607641675	1
0	4948	92.041620478588	1
0	4962	92.290183587023	1
0	4966	92.421379895131	1
0	4968	92.433463034757	1
0	4977	92.646933274211	1
0	4984	92.746663166628	1
0	4986	92.778468621147	1
0	4990	92.792718915712	1
0	4992	92.840370497809	1
0	4999	92.887250066973	1
0	5001	92.934137882536	1
0	5003	92.973354011498	1
0	5012	93.111499919483	1
0	5016	93.225479460149	1
0	5018	93.252635039317	1
0	5027	93.411370762286	1
0	5029	93.430227234711	1
0	5036	93.500331785644	1
0	5038	93.559986777332	1
0	5042	93.595118905486	1
0	5044	93.631426789504	1
0	5053	93.848549377639	1
0	5062	94.031302004421	1
0	5064	94.074668489958	1
0	5071	94.101815486601	1
0	5075	94.23590565906	1
0	5082	94.305699413943	1
0	5086	94.386748728661	1
0	5095	94.672491263443	1
0	5102	94.694995512829	1
0	5106	94.795507077686	1
0	5108	94.875029297817	1
0	5117	95.076987748139	1
0	5124	95.150310282007	1
0	5135	95.432001455003	1
0	5137	95.47489263858	1
0	5146	95.613828489275	1
0	5148	95.616321298848	1
0	5155	95.736577033319	1
0	5157	95.752691291202	1
0	5173	96.096785695961	1
0	5175	96.110925007234	1
0	5193	96.629437949537	1
0	5205	96.75250983464	1
0	5209	96.812625299278	1
0	5216	96.936093286883	1
0	5218	96.943443924625	1
0	5223	97.03805409875	1
0	5225	97.072697431499	1
0	5237	97.184143254671	1
0	5239	97.200672555903	1
0	5241	97.260005612729	1
0	5249	97.314045882489	1
0	5255	97.433144027829	1
0	5257	97.447218543372	1
0	5265	97.494752510336	1
0	5271	97.587416370366	1
0	5273	97.597955983357	1
0	5275	97.646213504873	1
0	5293	97.968745113245	1
0	5309	98.194492792321	1
0	5311	98.202011973237	1
0	5329	98.545574312485	1
0	5331	98.54752324178	1
0	5337	98.62668415124	1
0	5359	99.015775160281	1
0	5361	99.047909190568	1
0	5363	99.063982194625	1
0	5371	99.153687496036	1
0	5377	99.18362279633	1
0	5389	99.41069380707	1
0	5391	99.434968350806	1
0	5399	99.487179481247	1
0	5401	99.57390868313	1
0	5407	99.654222360322	1
0	5429	100.026163191412	1
0	5431	100.057860929401	1
0	5439	100.089745034242	1
0	5441	100.150523510654	1
0	5463	100.501429865754	1
0	5465	100.55279842708	1
0	5467	100.555381231523	1
0	5473	100.583938123573	1
0	5485	100.802902795029	1
0	5487	100.873397727167	1
0	5499	100.996706599889	1
0	5501	101.033868175372	1
0	5503	101.066409847088	1
0	5511	101.113096281444	1
0	5523	101.338345568451	1
0	5529	101.412783394591	1
0	5531	101.415471456542	1
0	5539	101.554339183929	1
0	5545	101.652592018201	1
0	5553	101.693164652588	1
0	5555	101.733144179836	1
0	5571	101.991055492915	1
0	5589	102.332547983158	1
0	5601	102.530829241185	1
0	5603	102.549290828476	1
0	5605	102.554282388719	1
0	5621	102.786034994976	1
0	5623	102.815290055095	1
0	5625	102.855328208241	1
0	5633	102.914411730281	1
0	5645	103.134444662325	1
0	5647	103.145496249985	1
0	5653	103.217332833506	1
0	5655	103.260176936385	1
0	5663	103.331640355123	1
0	5669	103.466385237492	1
0	5677	103.515296078554	1
0	5683	103.629400411979	1
0	5691	103.704921593755	1
0	5697	103.802309452903	1
0	5715	104.091821214605	1
0	5721	104.215791022667	1
0	5733	104.439155007777	1
0	5735	104.462086724941	1
0	5743	104.575132444772	1
0	5749	104.616941610666	1
0	5762	104.718836928774	1
0	5768	104.831612972131	1
0	5775	104.911100255738	1
0	5784	105.122490937203	1
0	5786	105.154330238809	1
0	5791	105.232785908501	1
0	5793	105.248834319237	1
0	5799	105.282060381595	1
0	5804	105.476065202583	1
0	5806	105.479135379884	1
0	5815	105.579936733932	1
0	5821	105.70384038467	1
0	5823	105.739456962826	1
0	5825	105.740248497477	1
0	5830	105.801907806329	1
0	5832	105.848537508973	1
0	5834	105.851020829748	1
0	5840	105.926637454527	1
0	5845	106.008296723412	1
0	5854	106.263544372767	1
0	5860	106.308353169605	1
0	5862	106.317728708366	1
0	5867	106.387586808974	1
0	5869	106.439664695461	1
0	5871	106.456344271273	1
0	5873	106.45880563568	1
0	5879	106.514232483021	1
0	5881	106.556180415368	1
0	5893	106.792809441753	1
0	5899	106.890156696118	1
0	5901	106.891011497983	1
0	5903	106.923732536116	1
0	5915	107.270671919994	1
0	5921	107.294212506644	1
0	5926	107.411619520323	1
0	5928	107.423915777012	1
0	5930	107.434387004355	1
0	5936	107.520458475106	1
0	5938	107.554675944268	1
0	5943	107.673508860297	1
0	5949	107.75096053909	1
0	5954	107.86242163939	1
0	5963	107.991210663301	1
0	5976	108.288531497249	1
0	5978	108.337775634887	1
0	5980	108.338046322345	1
0	5982	108.363804808979	1
0	5987	108.467989255461	1
0	5993	108.528660496385	1
0	5998	108.620387676076	1
0	6011	108.97823784866	1
0	6016	109.067090719893	1
0	6025	109.246558031293	1
0	6043	109.575622914319	1
0	6054	109.82188734126	1
0	6056	109.823588903633	1
0	6061	109.933635756681	1
0	6065	110.052867334103	1
0	6071	110.110968199649	1
0	6074	110.278996439657	1
0	6082	110.394543912532	1
0	6084	110.465839560445	1
0	6089	110.570422089724	1
0	6093	110.611063376399	1
0	6095	110.614016557515	1
0	6101	110.770482212585	1
0	6110	111.02247108197	1
0	6112	111.032701260071	1
0	6117	111.110889702381	1
0	6119	111.169235719612	1
0	6134	111.641875239298	1
0	6139	111.715262236	1
0	6141	111.763567538426	1
0	6149	111.881970312061	1
0	6152	112.046305635582	1
0	6154	112.055834083869	1
0	6160	112.117639321583	1
0	6162	112.143485246455	1
0	6169	112.318830058283	1
0	6171	112.371644457355	1
0	6175	112.449105830991	1
0	6181	112.546735033288	1
0	6188	112.765006422217	1
0	6197	112.983008466933	1
0	6204	113.195123912618	1
0	6210	113.291573888794	1
0	6212	113.331368728259	1
0	6214	113.345693598638	1
0	6218	113.397516383448	1
0	6230	113.791662251911	1
0	6232	113.870330563457	1
0	6240	114.075735811843	1
0	6245	114.172940708691	1
0	6249	114.242801065386	1
0	6255	114.29050084048	1
0	6262	114.546052612146	1
0	6266	114.624169491145	1
0	6271	114.702122994028	1
0	6273	114.715010858632	1
0	6281	114.971804121502	1
0	6288	115.085965673854	1
0	6292	115.263101005786	1
0	6297	115.296945119068	1
0	6306	115.642046132004	1
0	6308	115.646438855417	1
0	6319	115.898740601552	1
0	6321	115.911081548703	1
0	6323	115.914751455731	1
0	6325	115.926004450369	1
0	6327	115.945214007984	1
0	6331	115.98326510284	1
0	6333	116.032552979677	1
0	6335	116.060860223262	1
0	6346	116.364813382275	1
0	6350	116.447545974635	1
0	6355	116.483217599902	1
0	6363	116.720041205202	1
0	6365	116.737532231212	1
0	6368	116.824307745506	1
0	6376	117.041731036219	1
0	6386	117.132845617026	1
0	6390	117.191975895583	1
0	6392	117.21916247944	1
0	6399	117.457624013763	1
0	6405	117.544585549847	1
0	6407	117.562048329495	1
0	6409	117.577815534778	1
0	6418	117.686025723226	1