version 3
run General-0-20230522-19:00:06-106896
attr configname General
attr datetime 20230522-19:00:06
attr datetimef 20230522-190006
attr experiment General
attr inifile omnetpp.ini
attr iterationvars ""
attr iterationvarsd ""
attr iterationvarsf ""
attr measurement ""
attr network Network
attr processid 106896
attr repetition 0
attr replication #0
attr resultdir results
attr runnumber 0
attr seedset 0
config network Network
config sim-time-limit 200s
config Network.node[{0,1,2,3,4,6,7}].app.interArrivalTime exponential(1)
config Network.node[{0,1,2,3,4,6,7}].app.packetByteSize 125000
config Network.node[{0,1,2,3,4,6,7}].app.destination 5

vector 0 Network.node[7].lnk[0] "Buffer Size" ETV
vector 1 Network.node[6].lnk[0] "Buffer Size" ETV
vector 2 Network.node[0].lnk[0] "Buffer Size" ETV
vector 3 Network.node[4].lnk[0] "Buffer Size" ETV
vector 4 Network.node[5].app Delay ETV
vector 5 Network.node[5].app Hops ETV
vector 6 Network.node[1].lnk[0] "Buffer Size" ETV
vector 7 Network.node[3].lnk[0] "Buffer Size" ETV
vector 8 Network.node[2].lnk[0] "Buffer Size" ETV
0	3	0.353159139138	1
0	4	0.353159139138	0
0	48	1.898660388484	1
0	49	1.898660388484	0
0	67	2.576683561174	1
0	87	2.898660388484	0
0	89	2.898660388484	1
0	137	3.898660388484	0
0	139	3.898660388484	1
0	174	4.898660388484	0
0	176	4.898660388484	1
0	200	5.174937647023	2
0	214	5.898660388484	1
0	216	5.898660388484	2
0	256	6.788939721916	3
0	266	6.898660388484	2
0	268	6.898660388484	3
0	299	7.661260916958	4
0	315	7.898660388484	3
0	317	7.898660388484	4
0	347	8.399088208714	5
0	373	8.898660388484	4
0	375	8.898660388484	5
0	389	9.008170631897	6
0	425	9.898660388484	5
0	427	9.898660388484	6
0	441	9.969551570963	7
0	474	10.898660388484	6
0	476	10.898660388484	7
0	503	11.114690525663	8
0	520	11.898660388484	7
0	522	11.898660388484	8
0	544	12.213602993214	9
0	556	12.449809699297	10
0	569	12.82877166358	11
0	576	12.898660388484	10
0	578	12.898660388484	11
0	608	13.221884220884	12
0	634	13.898660388484	11
0	636	13.898660388484	12
0	680	14.898660388484	11
0	682	14.898660388484	12
0	729	15.898660388484	11
0	731	15.898660388484	12
0	781	16.898660388484	11
0	783	16.898660388484	12
0	820	17.67638106706	13
0	827	17.898660388484	12
0	829	17.898660388484	13
0	870	18.898660388484	12
0	872	18.898660388484	13
0	897	19.496199986344	14
0	916	19.898660388484	13
0	918	19.898660388484	14
0	936	20.208783579677	15
0	962	20.898660388484	14
0	964	20.898660388484	15
0	1001	21.553028851829	16
0	1014	21.898660388484	15
0	1016	21.898660388484	16
0	1056	22.719902378378	17
0	1063	22.898660388484	16
0	1065	22.898660388484	17
0	1093	23.555999910348	18
0	1109	23.898660388484	17
0	1111	23.898660388484	18
0	1132	24.267247847565	19
0	1155	24.898660388484	18
0	1157	24.898660388484	19
0	1184	25.125143488639	20
0	1187	25.2664742022	21
0	1201	25.898660388484	20
0	1203	25.898660388484	21
0	1227	26.308254856379	22
0	1243	26.615772580141	23
0	1259	26.898660388484	22
0	1261	26.898660388484	23
0	1294	27.420569979942	24
0	1307	27.735291640797	25
0	1317	27.898660388484	24
0	1319	27.898660388484	25
0	1336	28.075638379032	26
0	1346	28.36165935154	27
0	1369	28.898660388484	26
0	1371	28.898660388484	27
0	1392	29.220052319369	28
0	1395	29.47247231226	29
0	1415	29.898660388484	28
0	1417	29.898660388484	29
0	1455	30.898660388484	28
0	1457	30.898660388484	29
0	1491	31.693979210734	30
0	1498	31.898660388484	29
0	1500	31.898660388484	30
0	1524	32.224701707351	31
0	1547	32.898660388484	30
0	1549	32.898660388484	31
0	1587	33.898660388484	30
0	1589	33.898660388484	31
0	1613	34.354201103419	32
0	1633	34.898660388484	31
0	1635	34.898660388484	32
0	1659	35.116068874715	33
0	1682	35.898660388484	32
0	1684	35.898660388484	33
0	1701	36.080522440209	34
0	1740	36.898660388484	33
0	1742	36.898660388484	34
0	1775	37.339565957473	35
0	1791	37.776593971247	36
0	1794	37.810797389605	37
0	1804	37.898660388484	36
0	1806	37.898660388484	37
0	1846	38.869806774986	38
0	1856	38.898660388484	37
0	1858	38.898660388484	38
0	1888	39.327979658944	39
0	1905	39.898660388484	38
0	1907	39.898660388484	39
0	1945	40.898660388484	38
0	1947	40.898660388484	39
0	1967	40.968877236871	40
0	1990	41.602339854594	41
0	1997	41.898660388484	40
0	1999	41.898660388484	41
0	2034	42.898660388484	40
0	2036	42.898660388484	41
0	2076	43.628248671697	42
0	2086	43.898660388484	41
0	2088	43.898660388484	42
0	2132	44.898660388484	41
0	2134	44.898660388484	42
0	2161	45.274967773024	43
0	2180	45.819824901169	44
0	2187	45.898660388484	43
0	2189	45.898660388484	44
0	2233	46.898660388484	43
0	2235	46.898660388484	44
0	2267	47.898660388484	43
0	2269	47.898660388484	44
0	2310	48.898660388484	43
0	2312	48.898660388484	44
0	2365	49.529785493073	45
0	2381	49.898660388484	44
0	2383	49.898660388484	45
0	2424	50.898660388484	44
0	2426	50.898660388484	45
0	2473	51.898660388484	44
0	2475	51.898660388484	45
0	2505	52.41432978148	46
0	2519	52.898660388484	45
0	2521	52.898660388484	46
0	2562	53.898660388484	45
0	2564	53.898660388484	46
0	2582	54.41150174897	47
0	2617	54.898660388484	46
0	2619	54.898660388484	47
0	2625	54.919366871657	48
0	2647	55.521045858181	49
0	2663	55.898660388484	48
0	2665	55.898660388484	49
0	2718	56.898660388484	48
0	2720	56.898660388484	49
0	2764	57.898660388484	48
0	2766	57.898660388484	49
0	2807	58.898660388484	48
0	2809	58.898660388484	49
0	2823	59.035524538718	50
0	2856	59.898660388484	49
0	2858	59.898660388484	50
0	2872	60.165880084629	51
0	2878	60.410371106672	52
0	2908	60.898660388484	51
0	2910	60.898660388484	52
0	2937	61.498275540286	53
0	2951	61.898660388484	52
0	2953	61.898660388484	53
0	2967	61.981913927776	54
0	2990	62.86941585626	55
0	2993	62.869471208155	56
0	3000	62.898660388484	55
0	3002	62.898660388484	56
0	3043	63.898660388484	55
0	3045	63.898660388484	56
0	3086	64.898660388484	55
0	3088	64.898660388484	56
0	3094	64.930292449036	57
0	3112	65.173010942708	58
0	3135	65.898660388484	57
0	3137	65.898660388484	58
0	3184	66.898660388484	57
0	3186	66.898660388484	58
0	3236	67.898660388484	57
0	3238	67.898660388484	58
0	3262	68.117491220131	59
0	3291	68.898660388484	58
0	3293	68.898660388484	59
0	3307	69.001276876164	60
0	3314	69.32547598965	61
0	3320	69.467118024445	62
0	3343	69.898660388484	61
0	3345	69.898660388484	62
0	3400	70.728930697932	63
0	3410	70.898660388484	62
0	3412	70.898660388484	63
0	3450	71.898660388484	62
0	3452	71.898660388484	63
0	3482	72.17848547436	64
0	3502	72.898660388484	63
0	3504	72.898660388484	64
0	3522	73.056700553078	65
0	3528	73.402220136787	66
0	3562	73.677748073825	67
0	3569	73.898660388484	66
0	3571	73.898660388484	67
0	3609	74.898660388484	66
0	3611	74.898660388484	67
0	3629	75.215576788302	68
0	3635	75.416018983388	69
0	3658	75.898660388484	68
0	3660	75.898660388484	69
0	3681	76.134265463496	70
0	3704	76.898660388484	69
0	3706	76.898660388484	70
0	3724	77.066877318765	71
0	3727	77.3304544316	72
0	3744	77.898660388484	71
0	3746	77.898660388484	72
0	3778	78.898660388484	71
0	3780	78.898660388484	72
0	3794	79.441343205983	73
0	3818	79.898660388484	72
0	3820	79.898660388484	73
0	3838	80.10718569262	74
0	3844	80.453938996409	75
0	3870	80.898660388484	74
0	3872	80.898660388484	75
0	3910	81.898660388484	74
0	3912	81.898660388484	75
0	3940	82.344040694505	76
0	3954	82.898660388484	75
0	3956	82.898660388484	76
0	3993	83.744716391465	77
0	4000	83.891941428778	78
0	4003	83.898660388484	77
0	4005	83.898660388484	78
0	4031	84.450949098769	79
0	4054	84.898660388484	78
0	4056	84.898660388484	79
0	4076	85.166994416763	80
0	4093	85.898660388484	79
0	4095	85.898660388484	80
0	4112	86.0091307196	81
0	4130	86.898660388484	80
0	4132	86.898660388484	81
0	4163	87.564425079955	82
0	4173	87.898660388484	81
0	4175	87.898660388484	82
0	4192	88.074415913804	83
0	4212	88.59738356746	84
0	4221	88.739509078853	85
0	4231	88.898660388484	84
0	4233	88.898660388484	85
0	4289	89.898660388484	84
0	4291	89.898660388484	85
0	4332	90.898660388484	84
0	4334	90.898660388484	85
0	4374	91.79436885786	86
0	4384	91.898660388484	85
0	4386	91.898660388484	86
0	4439	92.898660388484	85
0	4441	92.898660388484	86
0	4461	93.092814493465	87
0	4493	93.836397685241	88
0	4500	93.898660388484	87
0	4502	93.898660388484	88
0	4558	94.898660388484	87
0	4560	94.898660388484	88
0	4591	95.590112330265	89
0	4597	95.786574216162	90
0	4603	95.858993326277	91
0	4606	95.868728735618	92
0	4613	95.898660388484	91
0	4615	95.898660388484	92
0	4632	96.187312583497	93
0	4655	96.650702611037	94
0	4674	96.898660388484	93
0	4676	96.898660388484	94
0	4711	97.898660388484	93
0	4713	97.898660388484	94
0	4769	98.898660388484	93
0	4771	98.898660388484	94
0	4791	99.24315121982	95
0	4818	99.898660388484	94
0	4820	99.898660388484	95
0	4837	100.056049581006	96
0	4879	100.898660388484	95
0	4881	100.898660388484	96
0	4907	101.104338685962	97
0	4913	101.20113615827	98
0	4940	101.898660388484	97
0	4942	101.898660388484	98
0	4974	102.898660388484	97
0	4976	102.898660388484	98
0	5010	103.615152588778	99
0	5026	103.898660388484	98
0	5028	103.898660388484	99
0	5068	104.786416283725	100
0	5075	104.898660388484	99
0	5077	104.898660388484	100
0	5094	105.060879805729	101
0	5097	105.235874853947	102
0	5100	105.245689290345	103
0	5127	105.898660388484	102
0	5129	105.898660388484	103
0	5169	106.837245413138	104
0	5176	106.898660388484	103
0	5178	106.898660388484	104
0	5184	106.939797306142	105
0	5216	107.898660388484	104
0	5218	107.898660388484	105
0	5259	108.898660388484	104
0	5261	108.898660388484	105
0	5305	109.898660388484	104
0	5307	109.898660388484	105
0	5321	109.97373987854	106
0	5357	110.898660388484	105
0	5359	110.898660388484	106
0	5397	111.898660388484	105
0	5399	111.898660388484	106
0	5446	112.898660388484	105
0	5448	112.898660388484	106
0	5462	112.955519535866	107
0	5471	113.160371803013	108
0	5501	113.898660388484	107
0	5503	113.898660388484	108
0	5509	113.928834380404	109
0	5520	114.032505217046	110
0	5556	114.898660388484	109
0	5558	114.898660388484	110
0	5611	115.898660388484	109
0	5613	115.898660388484	110
0	5633	116.068799404318	111
0	5636	116.101803389374	112
0	5642	116.351754206024	113
0	5659	116.643700277753	114
0	5684	116.898660388484	113
0	5686	116.898660388484	114
0	5703	117.115668365525	115
0	5723	117.584589692798	116
0	5736	117.898660388484	115
0	5738	117.898660388484	116
0	5755	117.955751413599	117
0	5776	118.898660388484	116
0	5778	118.898660388484	117
0	5803	119.600934840673	118
0	5819	119.898660388484	117
0	5821	119.898660388484	118
0	5838	120.05996276816	119
0	5841	120.400199987773	120
0	5848	120.473251644928	121
0	5858	120.749556837856	122
0	5868	120.898660388484	121
0	5870	120.898660388484	122
0	5908	121.835760149013	123
0	5918	121.898660388484	122
0	5920	121.898660388484	123
0	5958	122.898660388484	122
0	5960	122.898660388484	123
0	5993	123.759498719681	124
0	6007	123.898660388484	123
0	6009	123.898660388484	124
0	6026	124.206638622278	125
0	6045	124.657877420769	126
0	6062	124.898660388484	125
0	6064	124.898660388484	126
0	6070	124.922659694107	127
0	6108	125.898660388484	126
0	6110	125.898660388484	127
0	6145	126.898660388484	126
0	6147	126.898660388484	127
0	6177	127.691804176945	128
0	6188	127.898660388484	127
0	6190	127.898660388484	128
0	6207	127.978713272329	129
0	6210	128.090657813473	130
0	6220	128.763040715511	131
0	6231	128.898660388484	130
0	6233	128.898660388484	131
0	6280	129.898660388484	130
0	6282	129.898660388484	131
0	6317	130.898660388484	130
0	6319	130.898660388484	131
0	6333	130.984254898711	132
0	6345	131.302309443902	133
0	6361	131.77118759953	134
0	6375	131.898660388484	133
0	6377	131.898660388484	134
0	6391	132.042743391212	135
0	6400	132.231308115463	136
0	6410	132.582629397005	137
0	6433	132.898660388484	136
0	6435	132.898660388484	137
0	6479	133.898660388484	136
0	6481	133.898660388484	137
0	6514	134.753855278359	138
0	6517	134.778783374087	139
0	6528	134.898660388484	138
0	6530	134.898660388484	139
0	6568	135.898660388484	138
0	6570	135.898660388484	139
0	6587	135.981340718796	140
0	6603	136.58249536518	141
0	6614	136.898660388484	140
0	6616	136.898660388484	141
0	6622	136.928928692675	142
0	6669	137.898660388484	141
0	6671	137.898660388484	142
0	6691	138.043386924391	143
0	6724	138.898660388484	142
0	6726	138.898660388484	143
0	6764	139.898660388484	142
0	6766	139.898660388484	143
0	6783	140.300863715147	144
0	6800	140.822975019558	145
0	6807	140.898660388484	144
0	6809	140.898660388484	145
0	6859	141.898660388484	144
0	6861	141.898660388484	145
0	6905	142.898660388484	144
0	6907	142.898660388484	145
0	6948	143.898660388484	144
0	6950	143.898660388484	145
0	6980	144.542383330457	146
0	6986	144.592298932883	147
0	6996	144.884849534074	148
0	6999	144.898660388484	147
0	7001	144.898660388484	148
0	7025	145.475684754479	149
0	7036	145.898660388484	148
0	7038	145.898660388484	149
0	7044	145.90412578327	150
0	7069	146.618759970648	151
0	7082	146.898660388484	150
0	7084	146.898660388484	151
0	7124	147.759803304901	152
0	7131	147.898660388484	151
0	7133	147.898660388484	152
0	7175	148.887563738474	153
0	7178	148.898660388484	152
0	7180	148.898660388484	153
0	7203	149.219824362053	154
0	7230	149.898660388484	153
0	7232	149.898660388484	154
0	7261	150.458860869431	155
0	7268	150.552616257041	156
0	7291	150.898660388484	155
0	7293	150.898660388484	156
0	7319	151.25119726312	157
0	7352	151.898660388484	156
0	7354	151.898660388484	157
0	7398	152.898660388484	156
0	7400	152.898660388484	157
0	7447	153.898660388484	156
0	7449	153.898660388484	157
0	7486	154.720591101897	158
0	7493	154.898660388484	157
0	7495	154.898660388484	158
0	7530	155.898660388484	157
0	7532	155.898660388484	158
0	7538	155.912906876116	159
0	7560	156.625863355244	160
0	7573	156.898660388484	159
0	7575	156.898660388484	160
0	7592	157.032276221991	161
0	7598	157.134578003001	162
0	7618	157.718038175306	163
0	7628	157.898660388484	162
0	7630	157.898660388484	163
0	7674	158.898660388484	162
0	7676	158.898660388484	163
0	7682	158.902065911653	164
0	7713	159.878357934622	165
0	7720	159.898660388484	164
0	7722	159.898660388484	165
0	7739	160.276306329271	166
0	7756	160.794534177375	167
0	7763	160.898660388484	166
0	7765	160.898660388484	167
0	7803	161.898660388484	166
0	7805	161.898660388484	167
0	7848	162.848586661239	168
0	7855	162.898660388484	167
0	7857	162.898660388484	168
0	7904	163.898660388484	167
0	7906	163.898660388484	168
0	7959	164.898660388484	167
0	7961	164.898660388484	168
0	7996	165.898660388484	167
0	7998	165.898660388484	168
0	8018	166.299596790598	169
0	8024	166.474224587078	170
0	8045	166.898660388484	169
0	8047	166.898660388484	170
0	8087	167.556326471562	171
0	8090	167.596748049215	172
0	8103	167.898660388484	171
0	8105	167.898660388484	172
0	8129	168.166184163086	173
0	8155	168.898660388484	172
0	8157	168.898660388484	173
0	8198	169.898660388484	172
0	8200	169.898660388484	173
0	8243	170.549252436278	174
0	8259	170.898660388484	173
0	8261	170.898660388484	174
0	8275	171.024461875063	175
0	8285	171.216419777014	176
0	8298	171.613898856937	177
0	8307	171.837497915272	178
0	8314	171.898660388484	177
0	8316	171.898660388484	178
0	8347	172.772078331621	179
0	8354	172.898660388484	178
0	8356	172.898660388484	179
0	8374	173.10615341468	180
0	8394	173.898660388484	179
0	8396	173.898660388484	180
0	8414	174.108715823008	181
0	8433	174.675417782858	182
0	8443	174.898660388484	181
0	8445	174.898660388484	182
0	8466	175.087118360731	183
0	8495	175.898660388484	182
0	8497	175.898660388484	183
0	8514	175.985520727168	184
0	8541	176.898660388484	183
0	8543	176.898660388484	184
0	8583	177.709912612636	185
0	8590	177.898660388484	184
0	8592	177.898660388484	185
0	8623	178.724871571006	186
0	8630	178.898660388484	185
0	8632	178.898660388484	186
0	8667	179.898660388484	185
0	8669	179.898660388484	186
0	8704	180.898660388484	185
0	8706	180.898660388484	186
0	8765	181.898660388484	185
0	8767	181.898660388484	186
0	8794	182.464020049046	187
0	8801	182.661751816987	188
0	8811	182.898660388484	187
0	8813	182.898660388484	188
0	8860	183.898660388484	187
0	8862	183.898660388484	188
0	8903	184.898660388484	187
0	8905	184.898660388484	188
0	8933	185.84963598926	189
0	8940	185.898660388484	188
0	8942	185.898660388484	189
0	8966	186.360131151963	190
0	8973	186.597797023069	191
0	8979	186.757741236422	192
0	8989	186.898660388484	191
0	8991	186.898660388484	192
0	9038	187.898660388484	191
0	9040	187.898660388484	192
0	9046	187.91271576999	193
0	9086	188.878151569687	194
0	9093	188.898660388484	193
0	9095	188.898660388484	194
0	9145	189.898660388484	193
0	9147	189.898660388484	194
0	9200	190.898660388484	193
0	9202	190.898660388484	194
0	9220	191.147120656311	195
0	9236	191.760087924993	196
0	9242	191.820762225168	197
0	9249	191.898660388484	196
0	9251	191.898660388484	197
0	9265	191.952973824997	198
0	9275	192.375663613064	199
0	9292	192.898660388484	198
0	9294	192.898660388484	199
0	9334	193.626612273723	200
0	9347	193.898660388484	199
0	9349	193.898660388484	200
0	9386	194.710160462016	201
0	9396	194.898660388484	200
0	9398	194.898660388484	201
0	9419	195.101845001898	202
0	9422	195.218915041226	203
0	9451	195.898660388484	202
0	9453	195.898660388484	203
0	9503	196.898660388484	202
0	9505	196.898660388484	203
0	9525	197.010569377113	204
0	9558	197.898660388484	203
0	9560	197.898660388484	204
0	9574	198.017842065503	205
0	9607	198.898660388484	204
0	9609	198.898660388484	205
0	9644	199.898660388484	204
0	9646	199.898660388484	205
1	7	0.485128163722	1
1	8	0.485128163722	0
1	11	0.543512832815	1
1	26	1.353259139138	2
1	30	1.485128163722	1
1	58	2.485128163722	0
1	92	2.898760388484	1
1	118	3.485128163722	0
1	130	3.858425112743	1
1	142	3.898760388484	2
1	153	4.009655966408	3
1	164	4.485128163722	2
1	179	4.898760388484	3
1	201	5.485128163722	2
1	219	5.898760388484	3
1	234	6.04997022435	4
1	241	6.485128163722	3
1	253	6.78493464554	4
1	271	6.898760388484	5
1	290	7.485128163722	4
1	305	7.806366519889	5
1	320	7.898760388484	6
1	344	8.341932240117	7
1	351	8.485128163722	6
1	378	8.898760388484	7
1	406	9.485128163722	6
1	415	9.677222424741	7
1	430	9.898760388484	8
1	458	10.485128163722	7
1	479	10.898760388484	8
1	507	11.485128163722	7
1	525	11.898760388484	8
1	557	12.485128163722	7
1	563	12.555137446019	8
1	581	12.898760388484	9
1	609	13.485128163722	8
1	615	13.49119900579	9
1	639	13.898760388484	10
1	661	14.485128163722	9
1	685	14.898760388484	10
1	710	15.485128163722	9
1	734	15.898760388484	10
1	762	16.485128163722	9
1	771	16.684145647844	10
1	786	16.898760388484	11
1	814	17.485128163722	10
1	832	17.898760388484	11
1	857	18.485128163722	10
1	875	18.898760388484	11
1	891	19.485128163722	10
1	903	19.671335539696	11
1	909	19.72866246612	12
1	921	19.898760388484	13
1	939	20.328609352761	14
1	942	20.348799480907	15
1	945	20.388775779965	16
1	946	20.485128163722	15
1	967	20.898760388484	16
1	981	20.971654168832	17
1	991	21.417073630752	18
1	995	21.485128163722	17
1	1019	21.898760388484	18
1	1033	22.072719915116	19
1	1047	22.485128163722	18
1	1068	22.898760388484	19
1	1087	23.485128163722	18
1	1114	23.898760388484	19
1	1139	24.485128163722	18
1	1145	24.576631698201	19
1	1160	24.898760388484	20
1	1163	24.90197211373	21
1	1166	24.911372864394	22
1	1191	25.485128163722	21
1	1206	25.898760388484	22
1	1217	26.012218774485	23
1	1231	26.485128163722	22
1	1264	26.898760388484	23
1	1301	27.485128163722	22
1	1310	27.853501245972	23
1	1322	27.898760388484	24
1	1347	28.485128163722	23
1	1374	28.898760388484	24
1	1396	29.485128163722	23
1	1420	29.898760388484	24
1	1439	30.485128163722	23
1	1460	30.898760388484	24
1	1481	31.128644423687	25
1	1485	31.485128163722	24
1	1503	31.898760388484	25
1	1528	32.485128163722	24
1	1537	32.585462982251	25
1	1552	32.898760388484	26
1	1563	32.961201824658	27
1	1577	33.485128163722	26
1	1592	33.898760388484	27
1	1614	34.485128163722	26
1	1638	34.898760388484	27
1	1666	35.485128163722	26
1	1687	35.898760388484	27
1	1720	36.325572277709	28
1	1724	36.485128163722	27
1	1745	36.898760388484	28
1	1772	37.28794733348	29
1	1779	37.485128163722	28
1	1809	37.898760388484	29
1	1824	38.131835806071	30
1	1831	38.485128163722	29
1	1861	38.898760388484	30
1	1885	39.187685414731	31
1	1889	39.485128163722	30
1	1895	39.489251327954	31
1	1910	39.898760388484	32
1	1925	40.2593281875	33
1	1926	40.485128163722	32
1	1938	40.853401685824	33
1	1950	40.898760388484	34
1	1981	41.485128163722	33
1	2002	41.898760388484	34
1	2024	42.485128163722	33
1	2039	42.898760388484	34
1	2069	43.372683815907	35
1	2070	43.485128163722	34
1	2091	43.898760388484	35
1	2110	44.485128163722	34
1	2137	44.898760388484	35
1	2164	45.374670311433	36
1	2165	45.485128163722	35
1	2192	45.898760388484	36
1	2214	46.485128163722	35
1	2226	46.655004515245	36
1	2238	46.898760388484	37
1	2249	47.101257335764	38
1	2254	47.485128163722	37
1	2272	47.898760388484	38
1	2297	48.485128163722	37
1	2315	48.898760388484	38
1	2359	49.485128163722	37
1	2386	49.898760388484	38
1	2397	49.985869087866	39
1	2402	50.485128163722	38
1	2421	50.893833115191	39
1	2429	50.898760388484	40
1	2454	51.485128163722	39
1	2460	51.587032884729	40
1	2463	51.858700955071	41
1	2478	51.898760388484	42
1	2506	52.485128163722	41
1	2524	52.898760388484	42
1	2546	53.485128163722	41
1	2567	53.898760388484	42
1	2589	54.485128163722	41
1	2622	54.898760388484	42
1	2641	55.485128163722	41
1	2668	55.898760388484	42
1	2696	56.485128163722	41
1	2705	56.737833843065	42
1	2723	56.898760388484	43
1	2745	57.485128163722	42
1	2769	57.898760388484	43
1	2794	58.485128163722	42
1	2800	58.866503937596	43
1	2812	58.898760388484	44
1	2839	59.471085155931	45
1	2840	59.485128163722	44
1	2861	59.898760388484	45
1	2882	60.485128163722	44
1	2892	60.725288426022	45
1	2901	60.872884458913	46
1	2913	60.898760388484	47
1	2931	61.485128163722	46
1	2956	61.898760388484	47
1	2970	62.293267914498	48
1	2971	62.485128163722	47
1	2981	62.685840942686	48
1	3005	62.898760388484	49
1	3024	63.485128163722	48
1	3048	63.898760388484	49
1	3072	64.46398427952	50
1	3073	64.485128163722	49
1	3091	64.898760388484	50
1	3116	65.485128163722	49
1	3128	65.627097562945	50
1	3140	65.898760388484	51
1	3143	65.920049021432	52
1	3164	66.296478372953	53
1	3165	66.485128163722	52
1	3189	66.898760388484	53
1	3200	67.026706038192	54
1	3213	67.259231056577	55
1	3217	67.485128163722	54
1	3241	67.898760388484	55
1	3272	68.485128163722	54
1	3278	68.570203424737	55
1	3281	68.69523601466	56
1	3296	68.898760388484	57
1	3324	69.485128163722	56
1	3336	69.818696514208	57
1	3348	69.898760388484	58
1	3376	70.485128163722	57
1	3391	70.652074754854	58
1	3415	70.898760388484	59
1	3437	71.485128163722	58
1	3455	71.898760388484	59
1	3458	71.932499108833	60
1	3469	72.019607692091	61
1	3489	72.485128163722	60
1	3507	72.898760388484	61
1	3531	73.402924158242	62
1	3541	73.485128163722	61
1	3574	73.898760388484	62
1	3590	74.485128163722	61
1	3596	74.533842637431	62
1	3602	74.864752518607	63
1	3614	74.898760388484	64
1	3639	75.485128163722	63
1	3648	75.747633063564	64
1	3663	75.898760388484	65
1	3685	76.485128163722	64
1	3709	76.898760388484	65
1	3734	77.485128163722	64
1	3749	77.898760388484	65
1	3768	78.485128163722	64
1	3783	78.898760388484	65
1	3802	79.485128163722	64
1	3808	79.541656846652	65
1	3823	79.898760388484	66
1	3848	80.485128163722	65
1	3860	80.774537309683	66
1	3863	80.787862554511	67
1	3875	80.898760388484	68
1	3894	81.485128163722	67
1	3915	81.898760388484	68
1	3941	82.485128163722	67
1	3959	82.898760388484	68
1	3981	83.485128163722	67
1	4008	83.898760388484	68
1	4028	84.447519885276	69
1	4032	84.485128163722	68
1	4059	84.898760388484	69
1	4073	84.960234527906	70
1	4080	85.485128163722	69
1	4098	85.898760388484	70
1	4120	86.485128163722	69
1	4135	86.898760388484	70
1	4138	86.942124869015	71
1	4157	87.485128163722	70
1	4178	87.898760388484	71
1	4198	88.429554623355	72
1	4203	88.485128163722	71
1	4218	88.693825087491	72
1	4224	88.748732460042	73
1	4236	88.898760388484	74
1	4264	89.485128163722	73
1	4294	89.898760388484	74
1	4308	90.041880318838	75
1	4316	90.485128163722	74
1	4337	90.898760388484	75
1	4351	91.156767740745	76
1	4362	91.485128163722	75
1	4389	91.898760388484	76
1	4423	92.485128163722	75
1	4429	92.551636832008	76
1	4444	92.898760388484	77
1	4470	93.220939703994	78
1	4475	93.485128163722	77
1	4505	93.898760388484	78
1	4537	94.410435955329	79
1	4542	94.485128163722	78
1	4548	94.641856927284	79
1	4563	94.898760388484	80
1	4579	95.485128163722	79
1	4618	95.898760388484	80
1	4629	96.150072158911	81
1	4643	96.485128163722	80
1	4679	96.898760388484	81
1	4698	97.485128163722	80
1	4716	97.898760388484	81
1	4745	98.376156148353	82
1	4750	98.485128163722	81
1	4756	98.567452194251	82
1	4774	98.898760388484	83
1	4799	99.485128163722	82
1	4805	99.604697288354	83
1	4811	99.778892448728	84
1	4823	99.898760388484	85
1	4826	99.934178034233	86
1	4857	100.485128163722	85
1	4884	100.898760388484	86
1	4901	101.077973413352	87
1	4918	101.485128163722	86
1	4945	101.898760388484	87
1	4948	101.942911522781	88
1	4964	102.485128163722	87
1	4979	102.898760388484	88
1	4990	103.230873497857	89
1	5001	103.485128163722	88
1	5016	103.740075984723	89
1	5031	103.898760388484	90
1	5053	104.485128163722	89
1	5080	104.898760388484	90
1	5083	104.942789768552	91
1	5105	105.485128163722	90
1	5132	105.898760388484	91
1	5152	106.399349980128	92
1	5160	106.485128163722	91
1	5181	106.898760388484	92
1	5206	107.485128163722	91
1	5221	107.898760388484	92
1	5241	108.349326891975	93
1	5246	108.485128163722	92
1	5264	108.898760388484	93
1	5292	109.485128163722	92
1	5310	109.898760388484	93
1	5338	110.485128163722	92
1	5362	110.898760388484	93
1	5387	111.485128163722	92
1	5402	111.898760388484	93
1	5424	112.485128163722	92
1	5451	112.898760388484	93
1	5477	113.23282588232	94
1	5482	113.485128163722	93
1	5506	113.898760388484	94
1	5523	114.373104759239	95
1	5530	114.469646038267	96
1	5531	114.485128163722	95
1	5561	114.898760388484	96
1	5578	115.075079819907	97
1	5584	115.108713740827	98
1	5587	115.124442864602	99
1	5592	115.485128163722	98
1	5604	115.844087762291	99
1	5616	115.898760388484	100
1	5622	115.914589710652	101
1	5639	116.204863125775	102
1	5650	116.485128163722	101
1	5689	116.898760388484	102
1	5700	117.072724995663	103
1	5717	117.485128163722	102
1	5741	117.898760388484	103
1	5763	118.485128163722	102
1	5781	118.898760388484	103
1	5797	119.485128163722	102
1	5824	119.898760388484	103
1	5849	120.485128163722	102
1	5855	120.732287114125	103
1	5873	120.898760388484	104
1	5892	121.485128163722	103
1	5915	121.882949707054	104
1	5923	121.898760388484	105
1	5937	122.434751828692	106
1	5938	122.485128163722	105
1	5963	122.898760388484	106
1	5983	123.243731523825	107
1	5984	123.485128163722	106
1	5996	123.779630319165	107
1	6012	123.898760388484	108
1	6036	124.485128163722	107
1	6067	124.898760388484	108
1	6085	125.485128163722	107
1	6113	125.898760388484	108
1	6125	126.485128163722	107
1	6150	126.898760388484	108
1	6161	127.2502753997	109
1	6162	127.485128163722	108
1	6171	127.60204278513	109
1	6193	127.898760388484	110
1	6214	128.485128163722	109
1	6236	128.898760388484	110
1	6257	129.485128163722	109
1	6285	129.898760388484	110
1	6300	130.485128163722	109
1	6322	130.898760388484	110
1	6346	131.485128163722	109
1	6380	131.898760388484	110
1	6403	132.431763033099	111
1	6404	132.485128163722	110
1	6416	132.794841873283	111
1	6438	132.898760388484	112
1	6455	133.228506728657	113
1	6459	133.485128163722	112
1	6484	133.898760388484	113
1	6499	134.485128163722	112
1	6533	134.898760388484	113
1	6554	135.485128163722	112
1	6573	135.898760388484	113
1	6590	136.085932076473	114
1	6597	136.485128163722	113
1	6619	136.898760388484	114
1	6642	137.320611952526	115
1	6646	137.485128163722	114
1	6674	137.898760388484	115
1	6698	138.485128163722	114
1	6710	138.511593405923	115
1	6729	138.898760388484	116
1	6747	139.485128163722	115
1	6769	139.898760388484	116
1	6790	140.485128163722	115
1	6812	140.898760388484	116
1	6831	141.485128163722	115
1	6864	141.898760388484	116
1	6885	142.402503496331	117
1	6886	142.485128163722	116
1	6898	142.727920213493	117
1	6910	142.898760388484	118
1	6934	143.472298474891	119
1	6935	143.485128163722	118
1	6941	143.878024818758	119
1	6953	143.898760388484	120
1	6970	144.277820091235	121
1	6974	144.485128163722	120
1	7004	144.898760388484	121
1	7026	145.485128163722	120
1	7041	145.898760388484	121
1	7062	146.260632671509	122
1	7063	146.485128163722	121
1	7075	146.749741082129	122
1	7087	146.898760388484	123
1	7109	147.485128163722	122
1	7121	147.723619673609	123
1	7136	147.898760388484	124
1	7156	148.485128163722	123
1	7162	148.742572854685	124
1	7183	148.898760388484	125
1	7197	149.060965870741	126
1	7200	149.091667643752	127
1	7208	149.485128163722	126
1	7235	149.898760388484	127
1	7252	150.099681184236	128
1	7262	150.485128163722	127
1	7296	150.898760388484	128
1	7299	150.916273873084	129
1	7329	151.485128163722	128
1	7357	151.898760388484	129
1	7378	152.485128163722	128
1	7403	152.898760388484	129
1	7420	153.282564136931	130
1	7427	153.485128163722	129
1	7452	153.898760388484	130
1	7469	154.324408601752	131
1	7470	154.485128163722	130
1	7498	154.898760388484	131
1	7507	155.485128163722	130
1	7535	155.898760388484	131
1	7550	156.485128163722	130
1	7563	156.787052871158	131
1	7566	156.816584682322	132
1	7578	156.898760388484	133
1	7605	157.485128163722	132
1	7633	157.898760388484	133
1	7653	158.38124123302	134
1	7657	158.485128163722	133
1	7679	158.898760388484	134
1	7697	159.485128163722	133
1	7725	159.898760388484	134
1	7736	160.134689351296	135
1	7742	160.277938055081	136
1	7743	160.485128163722	135
1	7768	160.898760388484	136
1	7783	161.485128163722	135
1	7808	161.898760388484	136
1	7832	162.485128163722	135
1	7860	162.898760388484	136
1	7878	163.485128163722	135
1	7909	163.898760388484	136
1	7926	164.219396739707	137
1	7927	164.485128163722	136
1	7964	164.898760388484	137
1	7976	165.485128163722	136
1	8001	165.898760388484	137
1	8025	166.485128163722	136
1	8050	166.898760388484	137
1	8074	167.258928329841	138
1	8078	167.485128163722	137
1	8108	167.898760388484	138
1	8136	168.485128163722	137
1	8160	168.898760388484	138
1	8179	169.485128163722	137
1	8188	169.677979724	138
1	8203	169.898760388484	139
1	8233	170.418231915415	140
1	8237	170.485128163722	139
1	8264	170.898760388484	140